Program Version,EnergyPlus, Version 24.1.0-9d7789a3ac, YMD=2025.06.12 18:37
1,5,Environment Title[],Latitude[deg],Longitude[deg],Time Zone[],Elevation[m]
2,8,Day of Simulation[],Month[],Day of Month[],DST Indicator[1=yes 0=no],Hour[],StartMinute[],EndMinute[],DayType
3,5,Cumulative Day of Simulation[],Month[],Day of Month[],DST Indicator[1=yes 0=no],DayType  ! When Daily Report Variables Requested
4,2,Cumulative Days of Simulation[],Month[]  ! When Monthly Report Variables Requested
5,1,Cumulative Days of Simulation[] ! When Run Period Report Variables Requested
6,1,Calendar Year of Simulation[] ! When Annual Report Variables Requested
509,1,THERMAL ZONE: SPACE 101,Zone Mean Air Temperature [C] !Hourly
510,1,THERMAL ZONE: SPACE 102,Zone Mean Air Temperature [C] !Hourly
511,1,THERMAL ZONE: SPACE 103,Zone Mean Air Temperature [C] !Hourly
512,1,THERMAL ZONE: SPACE 104,Zone Mean Air Temperature [C] !Hourly
513,1,THERMAL ZONE: SPACE 101,Zone Mean Radiant Temperature [C] !Hourly
648,1,THERMAL ZONE: SPACE 102,Zone Mean Radiant Temperature [C] !Hourly
711,1,THERMAL ZONE: SPACE 103,Zone Mean Radiant Temperature [C] !Hourly
774,1,THERMAL ZONE: SPACE 104,Zone Mean Radiant Temperature [C] !Hourly
8,1,Electricity:Facility [J] !TimeStep
End of Data Dictionary
1,RUN PERIOD 1,  39.83,-104.65,  -7.00,1650.00
2,1, 1, 1, 0, 1, 0.00,15.00,Holiday
8,0.0
2,1, 1, 1, 0, 1,15.00,30.00,Holiday
8,0.0
2,1, 1, 1, 0, 1,30.00,45.00,Holiday
8,0.0
2,1, 1, 1, 0, 1,45.00,60.00,Holiday
8,0.0
2,1, 1, 1, 0, 1, 0.00,60.00,Holiday
509,8.462417464803863
510,8.348215298143906
511,6.825508330777388
512,5.273836920660716
513,8.486935464204779
648,8.299519260621993
711,6.933181111733968
774,5.273551551156645
2,1, 1, 1, 0, 2, 0.00,15.00,Holiday
8,0.0
2,1, 1, 1, 0, 2,15.00,30.00,Holiday
8,0.0
2,1, 1, 1, 0, 2,30.00,45.00,Holiday
8,0.0
2,1, 1, 1, 0, 2,45.00,60.00,Holiday
8,0.0
2,1, 1, 1, 0, 2, 0.00,60.00,Holiday
509,8.201882138378663
510,8.035480003214465
511,6.58436688373699
512,4.537028762039504
513,8.234767047847228
648,8.011457882677805
711,6.697279340088523
774,4.569512734097299
2,1, 1, 1, 0, 3, 0.00,15.00,Holiday
8,0.0
2,1, 1, 1, 0, 3,15.00,30.00,Holiday
8,0.0
2,1, 1, 1, 0, 3,30.00,45.00,Holiday
8,0.0
2,1, 1, 1, 0, 3,45.00,60.00,Holiday
8,0.0
2,1, 1, 1, 0, 3, 0.00,60.00,Holiday
509,7.994530794681705
510,7.772191188485991
511,6.376062104073882
512,3.7604576330881363
513,8.01423277368199
648,7.746998438527914
711,6.465398341881671
774,3.8129239206138346
2,1, 1, 1, 0, 4, 0.00,15.00,Holiday
8,0.0
2,1, 1, 1, 0, 4,15.00,30.00,Holiday
8,0.0
2,1, 1, 1, 0, 4,30.00,45.00,Holiday
8,0.0
2,1, 1, 1, 0, 4,45.00,60.00,Holiday
8,0.0
2,1, 1, 1, 0, 4, 0.00,60.00,Holiday
509,7.78587410424331
510,7.50955356989793
511,6.137813670952032
512,3.1958137849968242
513,7.792547080510084
648,7.482533943203028
711,6.206714907148157
774,3.2420972957665244
2,1, 1, 1, 0, 5, 0.00,15.00,Holiday
8,0.0
2,1, 1, 1, 0, 5,15.00,30.00,Holiday
8,0.0
2,1, 1, 1, 0, 5,30.00,45.00,Holiday
8,0.0
2,1, 1, 1, 0, 5,45.00,60.00,Holiday
8,0.0
2,1, 1, 1, 0, 5, 0.00,60.00,Holiday
509,7.570198899593326
510,7.24706550728215
511,5.883056073314723
512,2.8074122385493787
513,7.563002277933144
648,7.2171729720972575
711,5.933715286626644
774,2.8343439104552037
2,1, 1, 1, 0, 6, 0.00,15.00,Holiday
8,0.0
2,1, 1, 1, 0, 6,15.00,30.00,Holiday
8,0.0
2,1, 1, 1, 0, 6,30.00,45.00,Holiday
8,0.0
2,1, 1, 1, 0, 6,45.00,60.00,Holiday
8,0.0
2,1, 1, 1, 0, 6, 0.00,60.00,Holiday
509,7.353210823803332
510,6.9925095415815255
511,5.630226062119923
512,2.563091849537343
513,7.329289957617814
648,6.95714085118585
711,5.662223984769161
774,2.5617595218428586
2,1, 1, 1, 0, 7, 0.00,15.00,Holiday
8,0.0
2,1, 1, 1, 0, 7,15.00,30.00,Holiday
8,0.0
2,1, 1, 1, 0, 7,30.00,45.00,Holiday
8,0.0
2,1, 1, 1, 0, 7,45.00,60.00,Holiday
8,0.0
2,1, 1, 1, 0, 7, 0.00,60.00,Holiday
509,7.130278465246322
510,6.748092717645059
511,5.381646031406162
512,2.4379770778207464
513,7.090656317945761
648,6.7059134014068125
711,5.3987585059947465
774,2.4133648113002946
2,1, 1, 1, 0, 8, 0.00,15.00,Holiday
8,0.0
2,1, 1, 1, 0, 8,15.00,30.00,Holiday
8,0.0
2,1, 1, 1, 0, 8,30.00,45.00,Holiday
8,0.0
2,1, 1, 1, 0, 8,45.00,60.00,Holiday
8,0.0
2,1, 1, 1, 0, 8, 0.00,60.00,Holiday
509,6.948918226811069
510,6.543668567631811
511,5.18129123284169
512,2.432445217873077
513,6.888138919414008
648,6.491252064568174
711,5.182133841122185
774,2.3882259069726026
2,1, 1, 1, 0, 9, 0.00,15.00,Holiday
8,0.0
2,1, 1, 1, 0, 9,15.00,30.00,Holiday
8,0.0
2,1, 1, 1, 0, 9,30.00,45.00,Holiday
8,0.0
2,1, 1, 1, 0, 9,45.00,60.00,Holiday
8,0.0
2,1, 1, 1, 0, 9, 0.00,60.00,Holiday
509,7.020963721785852
510,6.497359820014631
511,5.185380640285921
512,2.7923808406283093
513,6.918474090811503
648,6.4404330846185225
711,5.159354977746967
774,2.7200334833213478
2,1, 1, 1, 0,10, 0.00,15.00,Holiday
8,0.0
2,1, 1, 1, 0,10,15.00,30.00,Holiday
8,0.0
2,1, 1, 1, 0,10,30.00,45.00,Holiday
8,0.0
2,1, 1, 1, 0,10,45.00,60.00,Holiday
8,0.0
2,1, 1, 1, 0,10, 0.00,60.00,Holiday
509,7.599167937166188
510,6.7585923297450154
511,5.548116730343546
512,3.794827428820048
513,7.467608351632336
648,6.683691404674498
711,5.4885087756006445
774,3.7071000052767835
2,1, 1, 1, 0,11, 0.00,15.00,Holiday
8,0.0
2,1, 1, 1, 0,11,15.00,30.00,Holiday
8,0.0
2,1, 1, 1, 0,11,30.00,45.00,Holiday
8,0.0
2,1, 1, 1, 0,11,45.00,60.00,Holiday
8,0.0
2,1, 1, 1, 0,11, 0.00,60.00,Holiday
509,8.258650539913628
510,7.169542795432108
511,6.031561789653798
512,5.121771052456875
513,8.099173429382294
648,7.058766247222654
711,5.966708041951743
774,5.02578003482798
2,1, 1, 1, 0,12, 0.00,15.00,Holiday
8,0.0
2,1, 1, 1, 0,12,15.00,30.00,Holiday
8,0.0
2,1, 1, 1, 0,12,30.00,45.00,Holiday
8,0.0
2,1, 1, 1, 0,12,45.00,60.00,Holiday
8,0.0
2,1, 1, 1, 0,12, 0.00,60.00,Holiday
509,8.84892707711583
510,7.643264233439984
511,6.555351880879703
512,6.400911454634569
513,8.673476132990213
648,7.51716206756139
711,6.5038277283730235
774,6.305247352146001
2,1, 1, 1, 0,13, 0.00,15.00,Holiday
8,0.0
2,1, 1, 1, 0,13,15.00,30.00,Holiday
8,0.0
2,1, 1, 1, 0,13,30.00,45.00,Holiday
8,0.0
2,1, 1, 1, 0,13,45.00,60.00,Holiday
8,0.0
2,1, 1, 1, 0,13, 0.00,60.00,Holiday
509,9.138532302623961
510,8.043884971894176
511,6.889151482093407
512,7.2805768633537635
513,8.976210321266521
648,7.9405633351098555
711,6.876300930152613
774,7.1730280885842
2,1, 1, 1, 0,14, 0.00,15.00,Holiday
8,0.0
2,1, 1, 1, 0,14,15.00,30.00,Holiday
8,0.0
2,1, 1, 1, 0,14,30.00,45.00,Holiday
8,0.0
2,1, 1, 1, 0,14,45.00,60.00,Holiday
8,0.0
2,1, 1, 1, 0,14, 0.00,60.00,Holiday
509,9.478266844252751
510,8.477011655669369
511,7.213116798310995
512,7.967412816502837
513,9.32330148955027
648,8.394097886859162
711,7.234739254606916
774,7.845996237964725
2,1, 1, 1, 0,15, 0.00,15.00,Holiday
8,0.0
2,1, 1, 1, 0,15,15.00,30.00,Holiday
8,0.0
2,1, 1, 1, 0,15,30.00,45.00,Holiday
8,0.0
2,1, 1, 1, 0,15,45.00,60.00,Holiday
8,0.0
2,1, 1, 1, 0,15, 0.00,60.00,Holiday
509,9.544848016915886
510,8.81157738731722
511,7.362658499244805
512,8.321144484853157
513,9.42443974285667
648,8.755587836568331
711,7.432373403615027
774,8.204972927204164
2,1, 1, 1, 0,16, 0.00,15.00,Holiday
8,0.0
2,1, 1, 1, 0,16,15.00,30.00,Holiday
8,0.0
2,1, 1, 1, 0,16,30.00,45.00,Holiday
8,0.0
2,1, 1, 1, 0,16,45.00,60.00,Holiday
8,0.0
2,1, 1, 1, 0,16, 0.00,60.00,Holiday
509,9.576079097066275
510,9.110440064189962
511,7.446786147428691
512,8.511907657715218
513,9.474095300430623
648,9.058459883307489
711,7.541410995849608
774,8.39899647860128
2,1, 1, 1, 0,17, 0.00,15.00,Holiday
8,0.0
2,1, 1, 1, 0,17,15.00,30.00,Holiday
8,0.0
2,1, 1, 1, 0,17,30.00,45.00,Holiday
8,0.0
2,1, 1, 1, 0,17,45.00,60.00,Holiday
8,0.0
2,1, 1, 1, 0,17, 0.00,60.00,Holiday
509,9.315832682968558
510,9.228570152165029
511,7.379936123871929
512,8.286471673763137
513,9.260257858419411
648,9.162304524639978
711,7.5023745707028215
774,8.195653607007385
2,1, 1, 1, 0,18, 0.00,15.00,Holiday
8,0.0
2,1, 1, 1, 0,18,15.00,30.00,Holiday
8,0.0
2,1, 1, 1, 0,18,30.00,45.00,Holiday
8,0.0
2,1, 1, 1, 0,18,45.00,60.00,Holiday
8,0.0
2,1, 1, 1, 0,18, 0.00,60.00,Holiday
509,9.088488953118828
510,9.216498268965637
511,7.336713681711656
512,7.834433973632079
513,9.071474906219539
648,9.154980031112704
711,7.467332311010207
774,7.773105743297834
2,1, 1, 1, 0,19, 0.00,15.00,Holiday
8,0.0
2,1, 1, 1, 0,19,15.00,30.00,Holiday
8,0.0
2,1, 1, 1, 0,19,30.00,45.00,Holiday
8,0.0
2,1, 1, 1, 0,19,45.00,60.00,Holiday
8,0.0
2,1, 1, 1, 0,19, 0.00,60.00,Holiday
509,9.004316993594896
510,9.175493592935647
511,7.337165057396515
512,7.393927258439405
513,9.001959805521036
648,9.115398379442714
711,7.4689059649907525
774,7.3560394908528135
2,1, 1, 1, 0,20, 0.00,15.00,Holiday
8,0.0
2,1, 1, 1, 0,20,15.00,30.00,Holiday
8,0.0
2,1, 1, 1, 0,20,30.00,45.00,Holiday
8,0.0
2,1, 1, 1, 0,20,45.00,60.00,Holiday
8,0.0
2,1, 1, 1, 0,20, 0.00,60.00,Holiday
509,8.958372108964316
510,9.088206335965651
511,7.323621622059971
512,6.930098027573777
513,8.962938536616127
648,9.029630137780005
711,7.451708568300701
774,6.9108520234245265
2,1, 1, 1, 0,21, 0.00,15.00,Holiday
8,0.0
2,1, 1, 1, 0,21,15.00,30.00,Holiday
8,0.0
2,1, 1, 1, 0,21,30.00,45.00,Holiday
8,0.0
2,1, 1, 1, 0,21,45.00,60.00,Holiday
8,0.0
2,1, 1, 1, 0,21, 0.00,60.00,Holiday
509,8.926784818262316
510,8.98800881078721
511,7.289333035163238
512,6.497094786320863
513,8.930548961183824
648,8.922125327700027
711,7.408324054751458
774,6.491025256388286
2,1, 1, 1, 0,22, 0.00,15.00,Holiday
8,0.0
2,1, 1, 1, 0,22,15.00,30.00,Holiday
8,0.0
2,1, 1, 1, 0,22,30.00,45.00,Holiday
8,0.0
2,1, 1, 1, 0,22,45.00,60.00,Holiday
8,0.0
2,1, 1, 1, 0,22, 0.00,60.00,Holiday
509,8.879818880094696
510,8.86123821431794
511,7.226806210605103
512,6.116086505584718
513,8.880482616578673
648,8.795328618555398
711,7.331934298465844
774,6.115776921362657
2,1, 1, 1, 0,23, 0.00,15.00,Holiday
8,0.0
2,1, 1, 1, 0,23,15.00,30.00,Holiday
8,0.0
2,1, 1, 1, 0,23,30.00,45.00,Holiday
8,0.0
2,1, 1, 1, 0,23,45.00,60.00,Holiday
8,0.0
2,1, 1, 1, 0,23, 0.00,60.00,Holiday
509,8.801546323699458
510,8.718102938351755
511,7.137375089817717
512,5.79802500063022
513,8.7998294527618
648,8.654269209250732
711,7.227688659217982
774,5.797211032041092
2,1, 1, 1, 0,24, 0.00,15.00,Holiday
8,0.0
2,1, 1, 1, 0,24,15.00,30.00,Holiday
8,0.0
2,1, 1, 1, 0,24,30.00,45.00,Holiday
8,0.0
2,1, 1, 1, 0,24,45.00,60.00,Holiday
8,0.0
2,1, 1, 1, 0,24, 0.00,60.00,Holiday
509,8.703078259717985
510,8.568169401114524
511,7.033350001862902
512,5.562071114525969
513,8.69548678397176
648,8.505562549723766
711,7.10785289551462
774,5.554636964740242
2,2, 1, 2, 0, 1, 0.00,15.00,Monday
8,381181.5400634763
2,2, 1, 2, 0, 1,15.00,30.00,Monday
8,381181.5400634763
2,2, 1, 2, 0, 1,30.00,45.00,Monday
8,381181.5400634763
2,2, 1, 2, 0, 1,45.00,60.00,Monday
8,381181.5400634763
2,2, 1, 2, 0, 1, 0.00,60.00,Monday
509,16.053840426489693
510,15.943083662665401
511,7.864380340771344
512,12.913399734064306
513,11.438078800298388
648,11.012721212466223
711,7.276776961948711
774,8.205178856487015
2,2, 1, 2, 0, 2, 0.00,15.00,Monday
8,302631.09898376453
2,2, 1, 2, 0, 2,15.00,30.00,Monday
8,302631.09898376453
2,2, 1, 2, 0, 2,30.00,45.00,Monday
8,302631.09898376453
2,2, 1, 2, 0, 2,45.00,60.00,Monday
8,302631.09898376453
2,2, 1, 2, 0, 2, 0.00,60.00,Monday
509,18.92171982995169
510,18.07549868685229
511,8.439881431645917
512,15.86613371137846
513,14.672223959857813
648,13.562168774877922
711,7.999104690753274
774,11.339760383746572
2,2, 1, 2, 0, 3, 0.00,15.00,Monday
8,224080.65790405258
2,2, 1, 2, 0, 3,15.00,30.00,Monday
8,224080.65790405258
2,2, 1, 2, 0, 3,30.00,45.00,Monday
8,224080.65790405258
2,2, 1, 2, 0, 3,45.00,60.00,Monday
8,224080.65790405258
2,2, 1, 2, 0, 3, 0.00,60.00,Monday
509,20.78034454218345
510,19.36039058790955
511,9.084847855075823
512,17.53453575905025
513,16.788963911975877
648,15.138185771307468
711,8.831093088329027
774,13.188075260212747
2,2, 1, 2, 0, 4, 0.00,15.00,Monday
8,224080.65790405258
2,2, 1, 2, 0, 4,15.00,30.00,Monday
8,224080.65790405258
2,2, 1, 2, 0, 4,30.00,45.00,Monday
8,224080.65790405258
2,2, 1, 2, 0, 4,45.00,60.00,Monday
8,224080.65790405258
2,2, 1, 2, 0, 4, 0.00,60.00,Monday
509,22.11905962583537
510,20.415083895184623
511,9.819089420393393
512,18.685650237368765
513,18.279570458131897
648,16.302179749804782
711,9.600799794033989
774,14.431732433596796
2,2, 1, 2, 0, 5, 0.00,15.00,Monday
8,224080.65790405258
2,2, 1, 2, 0, 5,15.00,30.00,Monday
8,224080.65790405258
2,2, 1, 2, 0, 5,30.00,45.00,Monday
8,224080.65790405258
2,2, 1, 2, 0, 5,45.00,60.00,Monday
8,224080.65790405258
2,2, 1, 2, 0, 5, 0.00,60.00,Monday
509,23.06385944317926
510,21.22129959738383
511,10.47117899813886
512,19.445554217005263
513,19.354707491866115
648,17.212186821749345
711,10.273328888519611
774,15.270249749077882
2,2, 1, 2, 0, 6, 0.00,15.00,Monday
8,381181.5400634763
2,2, 1, 2, 0, 6,15.00,30.00,Monday
8,381181.5400634763
2,2, 1, 2, 0, 6,30.00,45.00,Monday
8,381181.5400634763
2,2, 1, 2, 0, 6,45.00,60.00,Monday
8,381181.5400634763
2,2, 1, 2, 0, 6, 0.00,60.00,Monday
509,23.87280180644082
510,22.20428136023922
511,11.94705140898447
512,20.12850726638292
513,20.183248916627875
648,18.03176214467088
711,11.105797357649262
774,15.929827401333931
2,2, 1, 2, 0, 7, 0.00,15.00,Monday
8,695383.3043823239
2,2, 1, 2, 0, 7,15.00,30.00,Monday
8,695383.3043823239
2,2, 1, 2, 0, 7,30.00,45.00,Monday
8,695383.3043823239
2,2, 1, 2, 0, 7,45.00,60.00,Monday
8,695383.3043823239
2,2, 1, 2, 0, 7, 0.00,60.00,Monday
509,23.953891703755414
510,22.764373221883126
511,14.559713745022435
512,19.985715043742395
513,20.60415787687678
648,18.647274828268735
711,12.367362754673003
774,16.203512796297186
2,2, 1, 2, 0, 8, 0.00,15.00,Monday
8,852484.1865417477
2,2, 1, 2, 0, 8,15.00,30.00,Monday
8,852484.1865417477
2,2, 1, 2, 0, 8,30.00,45.00,Monday
8,852484.1865417477
2,2, 1, 2, 0, 8,45.00,60.00,Monday
8,852484.1865417477
2,2, 1, 2, 0, 8, 0.00,60.00,Monday
509,23.138809170039696
510,22.45958937262975
511,15.929215582844183
512,18.861872003034133
513,20.480273216316085
648,18.8775206553226
711,13.542705600107212
774,15.946316690610523
2,2, 1, 2, 0, 9, 0.00,15.00,Monday
8,695383.3043823239
2,2, 1, 2, 0, 9,15.00,30.00,Monday
8,695383.3043823239
2,2, 1, 2, 0, 9,30.00,45.00,Monday
8,695383.3043823239
2,2, 1, 2, 0, 9,45.00,60.00,Monday
8,695383.3043823239
2,2, 1, 2, 0, 9, 0.00,60.00,Monday
509,22.873083659425983
510,22.304999933085618
511,16.589939992175587
512,18.674165951372075
513,20.338893797681656
648,19.03126880848233
711,14.371210409368997
774,15.89927525550057
2,2, 1, 2, 0,10, 0.00,15.00,Monday
8,1399272.5644531262
2,2, 1, 2, 0,10,15.00,30.00,Monday
8,1399272.5644531262
2,2, 1, 2, 0,10,30.00,45.00,Monday
8,1399272.5644531262
2,2, 1, 2, 0,10,45.00,60.00,Monday
8,1399272.5644531262
2,2, 1, 2, 0,10, 0.00,60.00,Monday
509,23.621830267251884
510,21.771485487551217
511,18.702351198332757
512,19.504097116090087
513,20.702181289661954
648,19.119844925890867
711,15.486882865963834
774,16.49271089712152
2,2, 1, 2, 0,11, 0.00,15.00,Monday
8,1163621.2412139904
2,2, 1, 2, 0,11,15.00,30.00,Monday
8,1163621.2412139904
2,2, 1, 2, 0,11,30.00,45.00,Monday
8,1163621.2412139904
2,2, 1, 2, 0,11,45.00,60.00,Monday
8,1163621.2412139904
2,2, 1, 2, 0,11, 0.00,60.00,Monday
509,24.132421975548112
510,21.416547093166116
511,18.422909612693978
512,20.453328280664763
513,21.468806507285258
648,19.31048531889512
711,16.32991684076908
774,17.67887445810688
2,2, 1, 2, 0,12, 0.00,15.00,Monday
8,1163621.2412139904
2,2, 1, 2, 0,12,15.00,30.00,Monday
8,1163621.2412139904
2,2, 1, 2, 0,12,30.00,45.00,Monday
8,1163621.2412139904
2,2, 1, 2, 0,12,45.00,60.00,Monday
8,1163621.2412139904
2,2, 1, 2, 0,12, 0.00,60.00,Monday
509,24.428547356834024
510,21.654434455904617
511,18.70648919070954
512,21.422299864009695
513,21.70902624573378
648,19.52155813499101
711,16.578396748567037
774,18.602878176441948
2,2, 1, 2, 0,13, 0.00,15.00,Monday
8,1163621.2412139904
2,2, 1, 2, 0,13,15.00,30.00,Monday
8,1163621.2412139904
2,2, 1, 2, 0,13,30.00,45.00,Monday
8,1163621.2412139904
2,2, 1, 2, 0,13,45.00,60.00,Monday
8,1163621.2412139904
2,2, 1, 2, 0,13, 0.00,60.00,Monday
509,24.67389823838018
510,22.040019274160063
511,19.057353995954692
512,22.170143691924004
513,21.95366187846596
648,19.899844793670034
711,16.917780022020303
774,19.36073215216271
2,2, 1, 2, 0,14, 0.00,15.00,Monday
8,1163621.2412139904
2,2, 1, 2, 0,14,15.00,30.00,Monday
8,1163621.2412139904
2,2, 1, 2, 0,14,30.00,45.00,Monday
8,1163621.2412139904
2,2, 1, 2, 0,14,45.00,60.00,Monday
8,1163621.2412139904
2,2, 1, 2, 0,14, 0.00,60.00,Monday
509,24.707051071595764
510,22.373181914109793
511,19.34077483144326
512,22.639815068649284
513,21.941530448949102
648,20.214970442286287
711,17.164299312725586
774,19.813930369717546
2,2, 1, 2, 0,15, 0.00,15.00,Monday
8,1163621.2412139904
2,2, 1, 2, 0,15,15.00,30.00,Monday
8,1163621.2412139904
2,2, 1, 2, 0,15,30.00,45.00,Monday
8,1163621.2412139904
2,2, 1, 2, 0,15,45.00,60.00,Monday
8,1163621.2412139904
2,2, 1, 2, 0,15, 0.00,60.00,Monday
509,24.90857576929195
510,22.752629070828686
511,19.68509201159535
512,23.118609921204598
513,22.156200163583563
648,20.603826781909053
711,17.503462101580517
774,20.311231149066387
2,2, 1, 2, 0,16, 0.00,15.00,Monday
8,1163621.2412139904
2,2, 1, 2, 0,16,15.00,30.00,Monday
8,1163621.2412139904
2,2, 1, 2, 0,16,30.00,45.00,Monday
8,1163621.2412139904
2,2, 1, 2, 0,16,45.00,60.00,Monday
8,1163621.2412139904
2,2, 1, 2, 0,16, 0.00,60.00,Monday
509,25.355838622390404
510,23.51761880529394
511,19.868343876128083
512,23.783818759330572
513,22.3286990985473
648,21.0318190593039
711,17.666026195017558
774,20.677476336001355
2,2, 1, 2, 0,17, 0.00,15.00,Monday
8,1163621.2412139904
2,2, 1, 2, 0,17,15.00,30.00,Monday
8,1163621.2412139904
2,2, 1, 2, 0,17,30.00,45.00,Monday
8,1163621.2412139904
2,2, 1, 2, 0,17,45.00,60.00,Monday
8,1163621.2412139904
2,2, 1, 2, 0,17, 0.00,60.00,Monday
509,26.16362102167511
510,24.64545232370773
511,20.508462699525328
512,24.66121458591303
513,22.687509442723456
648,21.6429747391228
711,17.945623847271804
774,21.048680986128158
2,2, 1, 2, 0,18, 0.00,15.00,Monday
8,459731.9811431882
2,2, 1, 2, 0,18,15.00,30.00,Monday
8,459731.9811431882
2,2, 1, 2, 0,18,30.00,45.00,Monday
8,459731.9811431882
2,2, 1, 2, 0,18,45.00,60.00,Monday
8,459731.9811431882
2,2, 1, 2, 0,18, 0.00,60.00,Monday
509,25.302537728593947
510,25.107193882026614
511,19.35297131890824
512,23.630115882658153
513,22.817629670604774
648,22.156964270682884
711,18.041711714260835
774,20.974403404572023
2,2, 1, 2, 0,19, 0.00,15.00,Monday
8,1009585.0687011714
2,2, 1, 2, 0,19,15.00,30.00,Monday
8,1009585.0687011714
2,2, 1, 2, 0,19,30.00,45.00,Monday
8,1009585.0687011714
2,2, 1, 2, 0,19,45.00,60.00,Monday
8,1009585.0687011714
2,2, 1, 2, 0,19, 0.00,60.00,Monday
509,25.71826737433239
510,26.66620984700047
511,19.35074754789214
512,23.733190792522976
513,22.85089095233568
648,22.756828859459965
711,17.917689905979604
774,20.669242029574956
2,2, 1, 2, 0,20, 0.00,15.00,Monday
8,1323786.8330200189
2,2, 1, 2, 0,20,15.00,30.00,Monday
8,1323786.8330200189
2,2, 1, 2, 0,20,30.00,45.00,Monday
8,1323786.8330200189
2,2, 1, 2, 0,20,45.00,60.00,Monday
8,1323786.8330200189
2,2, 1, 2, 0,20, 0.00,60.00,Monday
509,26.88531511886906
510,28.37343979291388
511,19.842146588560336
512,24.564907363496133
513,23.437402471763697
648,23.67788437954303
711,18.07310730240604
774,20.80801995971096
2,2, 1, 2, 0,21, 0.00,15.00,Monday
8,1447397.8273071286
2,2, 1, 2, 0,21,15.00,30.00,Monday
8,1447397.8273071286
2,2, 1, 2, 0,21,30.00,45.00,Monday
8,1447397.8273071286
2,2, 1, 2, 0,21,45.00,60.00,Monday
8,1447397.8273071286
2,2, 1, 2, 0,21, 0.00,60.00,Monday
509,27.535926627236577
510,29.348199061011456
511,20.31622734130761
512,24.791933893584158
513,24.119423188336548
648,24.50104933242944
711,18.407242217156913
774,21.009139709986233
2,2, 1, 2, 0,22, 0.00,15.00,Monday
8,1323786.8330200189
2,2, 1, 2, 0,22,15.00,30.00,Monday
8,1323786.8330200189
2,2, 1, 2, 0,22,30.00,45.00,Monday
8,1323786.8330200189
2,2, 1, 2, 0,22,45.00,60.00,Monday
8,1323786.8330200189
2,2, 1, 2, 0,22, 0.00,60.00,Monday
509,28.177330945064007
510,29.687475415715376
511,20.459612953296904
512,25.12189477942836
513,24.714422001165634
648,25.051496047647582
711,18.71418138960496
774,21.18142913365076
2,2, 1, 2, 0,23, 0.00,15.00,Monday
8,1009585.0687011714
2,2, 1, 2, 0,23,15.00,30.00,Monday
8,1009585.0687011714
2,2, 1, 2, 0,23,30.00,45.00,Monday
8,1009585.0687011714
2,2, 1, 2, 0,23,45.00,60.00,Monday
8,1009585.0687011714
2,2, 1, 2, 0,23, 0.00,60.00,Monday
509,28.566739585542635
510,29.532738562567584
511,19.980792522028587
512,25.35359907543745
513,25.228721074416146
648,25.32246772546506
711,18.81189923255649
774,21.432001414029074
2,2, 1, 2, 0,24, 0.00,15.00,Monday
8,538282.4222229002
2,2, 1, 2, 0,24,15.00,30.00,Monday
8,538282.4222229002
2,2, 1, 2, 0,24,30.00,45.00,Monday
8,538282.4222229002
2,2, 1, 2, 0,24,45.00,60.00,Monday
8,538282.4222229002
2,2, 1, 2, 0,24, 0.00,60.00,Monday
509,28.423934088030887
510,28.64996967122542
511,19.28305818493444
512,25.133148709833065
513,25.442178149598703
648,25.214997301288058
711,18.690166294384035
774,21.53067538677182
2,3, 1, 3, 0, 1, 0.00,15.00,Tuesday
8,381181.5400634763
2,3, 1, 3, 0, 1,15.00,30.00,Tuesday
8,381181.5400634763
2,3, 1, 3, 0, 1,30.00,45.00,Tuesday
8,381181.5400634763
2,3, 1, 3, 0, 1,45.00,60.00,Tuesday
8,381181.5400634763
2,3, 1, 3, 0, 1, 0.00,60.00,Tuesday
509,28.291293245901
510,28.142702340179532
511,18.841387157517374
512,24.964258289810008
513,25.406302966287733
648,24.924672025735383
711,18.461801158437886
774,21.448244467153298
2,3, 1, 3, 0, 2, 0.00,15.00,Tuesday
8,302631.09898376453
2,3, 1, 3, 0, 2,15.00,30.00,Tuesday
8,302631.09898376453
2,3, 1, 3, 0, 2,30.00,45.00,Tuesday
8,302631.09898376453
2,3, 1, 3, 0, 2,45.00,60.00,Tuesday
8,302631.09898376453
2,3, 1, 3, 0, 2, 0.00,60.00,Tuesday
509,28.14566341638361
510,27.787067699524695
511,18.515135232008134
512,24.78850044079924
513,25.294809163480117
648,24.662289173881867
711,18.232708002494586
774,21.30271052455907
2,3, 1, 3, 0, 3, 0.00,15.00,Tuesday
8,224080.65790405258
2,3, 1, 3, 0, 3,15.00,30.00,Tuesday
8,224080.65790405258
2,3, 1, 3, 0, 3,30.00,45.00,Tuesday
8,224080.65790405258
2,3, 1, 3, 0, 3,45.00,60.00,Tuesday
8,224080.65790405258
2,3, 1, 3, 0, 3, 0.00,60.00,Tuesday
509,27.972624362101683
510,27.442089034692817
511,18.195021564048687
512,24.594353724902888
513,25.150400360589156
648,24.41552846235865
711,18.006097463240547
774,21.136159818190713
2,3, 1, 3, 0, 4, 0.00,15.00,Tuesday
8,224080.65790405258
2,3, 1, 3, 0, 4,15.00,30.00,Tuesday
8,224080.65790405258
2,3, 1, 3, 0, 4,30.00,45.00,Tuesday
8,224080.65790405258
2,3, 1, 3, 0, 4,45.00,60.00,Tuesday
8,224080.65790405258
2,3, 1, 3, 0, 4, 0.00,60.00,Tuesday
509,27.850431273454262
510,27.275734978588847
511,17.983143422457655
512,24.44646706810115
513,24.999878030443913
648,24.20346291235527
711,17.791467461317815
774,20.961679246263998
2,3, 1, 3, 0, 5, 0.00,15.00,Tuesday
8,224080.65790405258
2,3, 1, 3, 0, 5,15.00,30.00,Tuesday
8,224080.65790405258
2,3, 1, 3, 0, 5,30.00,45.00,Tuesday
8,224080.65790405258
2,3, 1, 3, 0, 5,45.00,60.00,Tuesday
8,224080.65790405258
2,3, 1, 3, 0, 5, 0.00,60.00,Tuesday
509,27.738497428113156
510,27.1377029355128
511,17.800506722653513
512,24.299538060173344
513,24.864901692675886
648,24.037918995856842
711,17.60702952078085
774,20.791499908261123
2,3, 1, 3, 0, 6, 0.00,15.00,Tuesday
8,381181.5400634763
2,3, 1, 3, 0, 6,15.00,30.00,Tuesday
8,381181.5400634763
2,3, 1, 3, 0, 6,30.00,45.00,Tuesday
8,381181.5400634763
2,3, 1, 3, 0, 6,45.00,60.00,Tuesday
8,381181.5400634763
2,3, 1, 3, 0, 6, 0.00,60.00,Tuesday
509,27.784234665684963
510,27.385449258001188
511,18.537044794780332
512,24.321148294101313
513,24.786166177604493
648,23.990730743652232
711,17.666208725929096
774,20.69220540293853
2,3, 1, 3, 0, 7, 0.00,15.00,Tuesday
8,695383.3043823239
2,3, 1, 3, 0, 7,15.00,30.00,Tuesday
8,695383.3043823239
2,3, 1, 3, 0, 7,30.00,45.00,Tuesday
8,695383.3043823239
2,3, 1, 3, 0, 7,45.00,60.00,Tuesday
8,695383.3043823239
2,3, 1, 3, 0, 7, 0.00,60.00,Tuesday
509,27.467926504238037
510,27.561819563419068
511,20.285095418590053
512,23.848561374051016
513,24.603857087652504
648,23.983565359353236
711,18.21429832256066
774,20.474186281899758
2,3, 1, 3, 0, 8, 0.00,15.00,Tuesday
8,852484.1865417477
2,3, 1, 3, 0, 8,15.00,30.00,Tuesday
8,852484.1865417477
2,3, 1, 3, 0, 8,30.00,45.00,Tuesday
8,852484.1865417477
2,3, 1, 3, 0, 8,45.00,60.00,Tuesday
8,852484.1865417477
2,3, 1, 3, 0, 8, 0.00,60.00,Tuesday
509,26.5151249027222
510,27.12342194024656
511,21.009353634190326
512,22.593925609092622
513,24.1287359126927
648,23.813932881919975
711,18.770452571764245
774,19.898489898584035
2,3, 1, 3, 0, 9, 0.00,15.00,Tuesday
8,695383.3043823239
2,3, 1, 3, 0, 9,15.00,30.00,Tuesday
8,695383.3043823239
2,3, 1, 3, 0, 9,30.00,45.00,Tuesday
8,695383.3043823239
2,3, 1, 3, 0, 9,45.00,60.00,Tuesday
8,695383.3043823239
2,3, 1, 3, 0, 9, 0.00,60.00,Tuesday
509,26.07057119573364
510,26.646259261195468
511,21.23175170832373
512,22.137680148796974
513,23.776509026128725
648,23.622905409842268
711,19.14430304619383
774,19.550605742338053
2,3, 1, 3, 0,10, 0.00,15.00,Tuesday
8,1399272.5644531262
2,3, 1, 3, 0,10,15.00,30.00,Tuesday
8,1399272.5644531262
2,3, 1, 3, 0,10,30.00,45.00,Tuesday
8,1399272.5644531262
2,3, 1, 3, 0,10,45.00,60.00,Tuesday
8,1399272.5644531262
2,3, 1, 3, 0,10, 0.00,60.00,Tuesday
509,26.720631075926043
510,25.973781900717142
511,22.947852441144263
512,22.806627808030626
513,23.867889950508218
648,23.377185236596667
711,19.826807844128126
774,19.84004949033197
2,3, 1, 3, 0,11, 0.00,15.00,Tuesday
8,1163621.2412139904
2,3, 1, 3, 0,11,15.00,30.00,Tuesday
8,1163621.2412139904
2,3, 1, 3, 0,11,30.00,45.00,Tuesday
8,1163621.2412139904
2,3, 1, 3, 0,11,45.00,60.00,Tuesday
8,1163621.2412139904
2,3, 1, 3, 0,11, 0.00,60.00,Tuesday
509,27.066853646552303
510,25.331975207745497
511,22.553269194830484
512,23.44849923623772
513,24.46707387529019
648,23.297984263810612
711,20.391907360389705
774,20.71878567103329
2,3, 1, 3, 0,12, 0.00,15.00,Tuesday
8,1163621.2412139904
2,3, 1, 3, 0,12,15.00,30.00,Tuesday
8,1163621.2412139904
2,3, 1, 3, 0,12,30.00,45.00,Tuesday
8,1163621.2412139904
2,3, 1, 3, 0,12,45.00,60.00,Tuesday
8,1163621.2412139904
2,3, 1, 3, 0,12, 0.00,60.00,Tuesday
509,27.610465635494048
510,25.40204183757165
511,22.871029561618183
512,24.318430327883153
513,25.062612268115338
648,23.377232934120414
711,20.76929647663443
774,21.62935343075485
2,3, 1, 3, 0,13, 0.00,15.00,Tuesday
8,1163621.2412139904
2,3, 1, 3, 0,13,15.00,30.00,Tuesday
8,1163621.2412139904
2,3, 1, 3, 0,13,30.00,45.00,Tuesday
8,1163621.2412139904
2,3, 1, 3, 0,13,45.00,60.00,Tuesday
8,1163621.2412139904
2,3, 1, 3, 0,13, 0.00,60.00,Tuesday
509,27.926664024259733
510,25.54481594901901
511,23.14778906510619
512,24.818539249491323
513,25.377263461346686
648,23.5169204124857
711,21.039942374079217
774,22.137400226490787
2,3, 1, 3, 0,14, 0.00,15.00,Tuesday
8,1163621.2412139904
2,3, 1, 3, 0,14,15.00,30.00,Tuesday
8,1163621.2412139904
2,3, 1, 3, 0,14,30.00,45.00,Tuesday
8,1163621.2412139904
2,3, 1, 3, 0,14,45.00,60.00,Tuesday
8,1163621.2412139904
2,3, 1, 3, 0,14, 0.00,60.00,Tuesday
509,28.047470651982113
510,25.754683998517223
511,23.281323263771363
512,24.95457204809225
513,25.470217172008173
648,23.724565258265006
711,21.147999022499235
774,22.26352030797752
2,3, 1, 3, 0,15, 0.00,15.00,Tuesday
8,1163621.2412139904
2,3, 1, 3, 0,15,15.00,30.00,Tuesday
8,1163621.2412139904
2,3, 1, 3, 0,15,30.00,45.00,Tuesday
8,1163621.2412139904
2,3, 1, 3, 0,15,45.00,60.00,Tuesday
8,1163621.2412139904
2,3, 1, 3, 0,15, 0.00,60.00,Tuesday
509,27.882064979737702
510,25.872999482795873
511,23.244062362036598
512,24.81159748624235
513,25.268649279739158
648,23.8337001038948
711,21.078208688088218
774,22.09482323113683
2,3, 1, 3, 0,16, 0.00,15.00,Tuesday
8,1163621.2412139904
2,3, 1, 3, 0,16,15.00,30.00,Tuesday
8,1163621.2412139904
2,3, 1, 3, 0,16,30.00,45.00,Tuesday
8,1163621.2412139904
2,3, 1, 3, 0,16,45.00,60.00,Tuesday
8,1163621.2412139904
2,3, 1, 3, 0,16, 0.00,60.00,Tuesday
509,27.77493898598053
510,26.20984754222111
511,23.052305866830853
512,24.798829085256678
513,24.919624299016792
648,23.90659739290617
711,20.863593967026056
774,21.777019388983863
2,3, 1, 3, 0,17, 0.00,15.00,Tuesday
8,1163621.2412139904
2,3, 1, 3, 0,17,15.00,30.00,Tuesday
8,1163621.2412139904
2,3, 1, 3, 0,17,30.00,45.00,Tuesday
8,1163621.2412139904
2,3, 1, 3, 0,17,45.00,60.00,Tuesday
8,1163621.2412139904
2,3, 1, 3, 0,17, 0.00,60.00,Tuesday
509,28.057864907764884
510,26.843178819959707
511,23.25764128052926
512,25.128248119462064
513,24.809857761386347
648,24.09333032878609
711,20.76079092514324
774,21.596435194558993
2,3, 1, 3, 0,18, 0.00,15.00,Tuesday
8,459731.9811431882
2,3, 1, 3, 0,18,15.00,30.00,Tuesday
8,459731.9811431882
2,3, 1, 3, 0,18,30.00,45.00,Tuesday
8,459731.9811431882
2,3, 1, 3, 0,18,45.00,60.00,Tuesday
8,459731.9811431882
2,3, 1, 3, 0,18, 0.00,60.00,Tuesday
509,26.82772124628815
510,26.91978746909804
511,21.715372682547795
512,23.65673671810186
513,24.561693512386523
648,24.19940476989229
711,20.476213475659357
774,21.065988314456053
2,3, 1, 3, 0,19, 0.00,15.00,Tuesday
8,1009585.0687011714
2,3, 1, 3, 0,19,15.00,30.00,Tuesday
8,1009585.0687011714
2,3, 1, 3, 0,19,30.00,45.00,Tuesday
8,1009585.0687011714
2,3, 1, 3, 0,19,45.00,60.00,Tuesday
8,1009585.0687011714
2,3, 1, 3, 0,19, 0.00,60.00,Tuesday
509,26.987970137107666
510,28.184102821302375
511,21.449673994225638
512,23.41077792784037
513,24.28750633017114
648,24.436196834128282
711,20.02016776693769
774,20.370971726249923
2,3, 1, 3, 0,20, 0.00,15.00,Tuesday
8,1323786.8330200189
2,3, 1, 3, 0,20,15.00,30.00,Tuesday
8,1323786.8330200189
2,3, 1, 3, 0,20,30.00,45.00,Tuesday
8,1323786.8330200189
2,3, 1, 3, 0,20,45.00,60.00,Tuesday
8,1323786.8330200189
2,3, 1, 3, 0,20, 0.00,60.00,Tuesday
509,27.87032303513554
510,29.544431478483343
511,21.659539229742595
512,24.121276032693142
513,24.591647860501066
648,25.026175216316204
711,19.882151507588326
774,20.347037537689893
2,3, 1, 3, 0,21, 0.00,15.00,Tuesday
8,1447397.8273071286
2,3, 1, 3, 0,21,15.00,30.00,Tuesday
8,1447397.8273071286
2,3, 1, 3, 0,21,30.00,45.00,Tuesday