Program Version,EnergyPlus, Version 24.1.0-9d7789a3ac, YMD=2025.06.12 18:41
1,5,Environment Title[],Latitude[deg],Longitude[deg],Time Zone[],Elevation[m]
2,8,Day of Simulation[],Month[],Day of Month[],DST Indicator[1=yes 0=no],Hour[],StartMinute[],EndMinute[],DayType
3,5,Cumulative Day of Simulation[],Month[],Day of Month[],DST Indicator[1=yes 0=no],DayType  ! When Daily Report Variables Requested
4,2,Cumulative Days of Simulation[],Month[]  ! When Monthly Report Variables Requested
5,1,Cumulative Days of Simulation[] ! When Run Period Report Variables Requested
6,1,Calendar Year of Simulation[] ! When Annual Report Variables Requested
509,1,THERMAL ZONE: SPACE 101,Zone Mean Air Temperature [C] !Hourly
510,1,THERMAL ZONE: SPACE 102,Zone Mean Air Temperature [C] !Hourly
511,1,THERMAL ZONE: SPACE 103,Zone Mean Air Temperature [C] !Hourly
512,1,THERMAL ZONE: SPACE 104,Zone Mean Air Temperature [C] !Hourly
513,1,THERMAL ZONE: SPACE 101,Zone Mean Radiant Temperature [C] !Hourly
648,1,THERMAL ZONE: SPACE 102,Zone Mean Radiant Temperature [C] !Hourly
711,1,THERMAL ZONE: SPACE 103,Zone Mean Radiant Temperature [C] !Hourly
774,1,THERMAL ZONE: SPACE 104,Zone Mean Radiant Temperature [C] !Hourly
8,1,Electricity:Facility [J] !TimeStep
End of Data Dictionary
1,RUN PERIOD 1,  39.83,-104.65,  -7.00,1650.00
2,1, 1, 1, 0, 1, 0.00,15.00,Holiday
8,0.0
2,1, 1, 1, 0, 1,15.00,30.00,Holiday
8,0.0
2,1, 1, 1, 0, 1,30.00,45.00,Holiday
8,0.0
2,1, 1, 1, 0, 1,45.00,60.00,Holiday
8,0.0
2,1, 1, 1, 0, 1, 0.00,60.00,Holiday
509,8.46198648343115
510,8.347089475502177
511,6.82069810557331
512,5.272667188466912
513,8.486484919967552
648,8.298350874141867
711,6.92933959603198
774,5.27234999705297
2,1, 1, 1, 0, 2, 0.00,15.00,Holiday
8,0.0
2,1, 1, 1, 0, 2,15.00,30.00,Holiday
8,0.0
2,1, 1, 1, 0, 2,30.00,45.00,Holiday
8,0.0
2,1, 1, 1, 0, 2,45.00,60.00,Holiday
8,0.0
2,1, 1, 1, 0, 2, 0.00,60.00,Holiday
509,8.201441533779693
510,8.034335161815715
511,6.579251288649526
512,4.535797554446496
513,8.23430955447941
648,8.01024991903181
711,6.693188260136103
774,4.5682584236957045
2,1, 1, 1, 0, 3, 0.00,15.00,Holiday
8,0.0
2,1, 1, 1, 0, 3,15.00,30.00,Holiday
8,0.0
2,1, 1, 1, 0, 3,30.00,45.00,Holiday
8,0.0
2,1, 1, 1, 0, 3,45.00,60.00,Holiday
8,0.0
2,1, 1, 1, 0, 3, 0.00,60.00,Holiday
509,7.99408347788663
510,7.771008059875618
511,6.3710435392408185
512,3.7591575159080066
513,8.013767049999906
648,7.745743597919188
711,6.461252873766737
774,3.8116053204624767
2,1, 1, 1, 0, 4, 0.00,15.00,Holiday
8,0.0
2,1, 1, 1, 0, 4,15.00,30.00,Holiday
8,0.0
2,1, 1, 1, 0, 4,30.00,45.00,Holiday
8,0.0
2,1, 1, 1, 0, 4,45.00,60.00,Holiday
8,0.0
2,1, 1, 1, 0, 4, 0.00,60.00,Holiday
509,7.785418714181355
510,7.508338050327625
511,6.132926101913866
512,3.1944544397002836
513,7.792071456269859
648,7.481241709893744
711,6.202588088960539
774,3.240720866373923
2,1, 1, 1, 0, 5, 0.00,15.00,Holiday
8,0.0
2,1, 1, 1, 0, 5,15.00,30.00,Holiday
8,0.0
2,1, 1, 1, 0, 5,30.00,45.00,Holiday
8,0.0
2,1, 1, 1, 0, 5,45.00,60.00,Holiday
8,0.0
2,1, 1, 1, 0, 5, 0.00,60.00,Holiday
509,7.569734520815361
510,7.2458273304302185
511,5.878336794458125
512,2.806008966646811
513,7.56251591676011
648,7.215856142603324
711,5.929656929965821
774,2.832923727045139
2,1, 1, 1, 0, 6, 0.00,15.00,Holiday
8,0.0
2,1, 1, 1, 0, 6,15.00,30.00,Holiday
8,0.0
2,1, 1, 1, 0, 6,30.00,45.00,Holiday
8,0.0
2,1, 1, 1, 0, 6,45.00,60.00,Holiday
8,0.0
2,1, 1, 1, 0, 6, 0.00,60.00,Holiday
509,7.352737807848361
510,6.991256325358186
511,5.625751083797609
512,2.5616634358809014
513,7.328793125325826
648,6.955811169312973
711,5.6582986911904625
774,2.560311541138536
2,1, 1, 1, 0, 7, 0.00,15.00,Holiday
8,0.0
2,1, 1, 1, 0, 7,15.00,30.00,Holiday
8,0.0
2,1, 1, 1, 0, 7,30.00,45.00,Holiday
8,0.0
2,1, 1, 1, 0, 7,45.00,60.00,Holiday
8,0.0
2,1, 1, 1, 0, 7, 0.00,60.00,Holiday
509,7.129798040988182
510,6.746834216735506
511,5.377448517977993
512,2.4365454493221304
513,7.090150071054181
648,6.704583514967074
711,5.39501337881909
774,2.4119069671308413
2,1, 1, 1, 0, 8, 0.00,15.00,Holiday
8,0.0
2,1, 1, 1, 0, 8,15.00,30.00,Holiday
8,0.0
2,1, 1, 1, 0, 8,30.00,45.00,Holiday
8,0.0
2,1, 1, 1, 0, 8,45.00,60.00,Holiday
8,0.0
2,1, 1, 1, 0, 8, 0.00,60.00,Holiday
509,6.9484345782045835
510,6.542412902530703
511,5.177349213409585
512,2.4310261409048093
513,6.887625296726316
648,6.489934291274602
711,5.178570226910908
774,2.3867773930515574
2,1, 1, 1, 0, 9, 0.00,15.00,Holiday
8,0.0
2,1, 1, 1, 0, 9,15.00,30.00,Holiday
8,0.0
2,1, 1, 1, 0, 9,30.00,45.00,Holiday
8,0.0
2,1, 1, 1, 0, 9,45.00,60.00,Holiday
8,0.0
2,1, 1, 1, 0, 9, 0.00,60.00,Holiday
509,7.02047743909918
510,6.49610526820444
511,5.181674352887473
512,2.7909948274834715
513,6.917957219367949
648,6.43913439605034
711,5.155932216258558
774,2.718609815996983
2,1, 1, 1, 0,10, 0.00,15.00,Holiday
8,0.0
2,1, 1, 1, 0,10,15.00,30.00,Holiday
8,0.0
2,1, 1, 1, 0,10,30.00,45.00,Holiday
8,0.0
2,1, 1, 1, 0,10,45.00,60.00,Holiday
8,0.0
2,1, 1, 1, 0,10, 0.00,60.00,Holiday
509,7.598663458739718
510,6.75734042040471
511,5.54481350798202
512,3.7935085332130303
513,7.467087893459327
648,6.682415544942032
711,5.48530571375547
774,3.705713322626951
2,1, 1, 1, 0,11, 0.00,15.00,Holiday
8,0.0
2,1, 1, 1, 0,11,15.00,30.00,Holiday
8,0.0
2,1, 1, 1, 0,11,30.00,45.00,Holiday
8,0.0
2,1, 1, 1, 0,11,45.00,60.00,Holiday
8,0.0
2,1, 1, 1, 0,11, 0.00,60.00,Holiday
509,8.258141866697214
510,7.168317348548305
511,6.028728252023491
512,5.120466079554564
513,8.098652139752428
648,7.057524094567008
711,5.9637187833897265
774,5.024433173272756
2,1, 1, 1, 0,12, 0.00,15.00,Holiday
8,0.0
2,1, 1, 1, 0,12,15.00,30.00,Holiday
8,0.0
2,1, 1, 1, 0,12,30.00,45.00,Holiday
8,0.0
2,1, 1, 1, 0,12,45.00,60.00,Holiday
8,0.0
2,1, 1, 1, 0,12, 0.00,60.00,Holiday
509,8.84841927384197
510,7.642076389421365
511,6.552702831894322
512,6.399634481937771
513,8.672957036787002
648,7.515961840168327
711,6.501019922038422
774,6.303953449201356
2,1, 1, 1, 0,13, 0.00,15.00,Holiday
8,0.0
2,1, 1, 1, 0,13,15.00,30.00,Holiday
8,0.0
2,1, 1, 1, 0,13,30.00,45.00,Holiday
8,0.0
2,1, 1, 1, 0,13,45.00,60.00,Holiday
8,0.0
2,1, 1, 1, 0,13, 0.00,60.00,Holiday
509,9.138030023062399
510,8.042735949386524
511,6.88663399046304
512,7.27935391949832
513,8.975696529762617
648,7.9394060580901495
711,6.873630530371392
774,7.171791458554739
2,1, 1, 1, 0,14, 0.00,15.00,Holiday
8,0.0
2,1, 1, 1, 0,14,15.00,30.00,Holiday
8,0.0
2,1, 1, 1, 0,14,30.00,45.00,Holiday
8,0.0
2,1, 1, 1, 0,14,45.00,60.00,Holiday
8,0.0
2,1, 1, 1, 0,14, 0.00,60.00,Holiday
509,9.477772009509728
510,8.47589237351366
511,7.210721227354522
512,7.966243396963011
513,9.322795425955528
648,8.392980303605096
711,7.232159927676195
774,7.844816660426705
2,1, 1, 1, 0,15, 0.00,15.00,Holiday
8,0.0
2,1, 1, 1, 0,15,15.00,30.00,Holiday
8,0.0
2,1, 1, 1, 0,15,30.00,45.00,Holiday
8,0.0
2,1, 1, 1, 0,15,45.00,60.00,Holiday
8,0.0
2,1, 1, 1, 0,15, 0.00,60.00,Holiday
509,9.544363440438714
510,8.810502418056203
511,7.360216247936732
512,8.320041970966404
513,9.423943189912418
648,8.754507541661877
711,7.429926029382188
774,8.203850255560074
2,1, 1, 1, 0,16, 0.00,15.00,Holiday
8,0.0
2,1, 1, 1, 0,16,15.00,30.00,Holiday
8,0.0
2,1, 1, 1, 0,16,30.00,45.00,Holiday
8,0.0
2,1, 1, 1, 0,16,45.00,60.00,Holiday
8,0.0
2,1, 1, 1, 0,16, 0.00,60.00,Holiday
509,9.575602883878446
510,9.109401615357573
511,7.444296384214059
512,8.51086022302296
513,9.473609540471744
648,9.057416143668888
711,7.539043911216791
774,8.397925640798475
2,1, 1, 1, 0,17, 0.00,15.00,Holiday
8,0.0
2,1, 1, 1, 0,17,15.00,30.00,Holiday
8,0.0
2,1, 1, 1, 0,17,30.00,45.00,Holiday
8,0.0
2,1, 1, 1, 0,17,45.00,60.00,Holiday
8,0.0
2,1, 1, 1, 0,17, 0.00,60.00,Holiday
509,9.31537776753054
510,9.227560832590232
511,7.37726235311677
512,8.285481835421175
513,9.259782389543435
648,9.16129153552
711,7.499940033389123
774,8.19462658802631
2,1, 1, 1, 0,18, 0.00,15.00,Holiday
8,0.0
2,1, 1, 1, 0,18,15.00,30.00,Holiday
8,0.0
2,1, 1, 1, 0,18,30.00,45.00,Holiday
8,0.0
2,1, 1, 1, 0,18,45.00,60.00,Holiday
8,0.0
2,1, 1, 1, 0,18, 0.00,60.00,Holiday
509,9.088045831478425
510,9.21550745967416
511,7.333691051424596
512,7.833489798716961
513,9.071011776064541
648,9.153982319784353
711,7.4646662534883825
774,7.772099406455871
2,1, 1, 1, 0,19, 0.00,15.00,Holiday
8,0.0
2,1, 1, 1, 0,19,15.00,30.00,Holiday
8,0.0
2,1, 1, 1, 0,19,30.00,45.00,Holiday
8,0.0
2,1, 1, 1, 0,19,45.00,60.00,Holiday
8,0.0
2,1, 1, 1, 0,19, 0.00,60.00,Holiday
509,9.003883449296548
510,9.17450028724529
511,7.3337530795117445
512,7.392968648128331
513,9.001507321092841
648,9.11439670786909
711,7.465988421357343
774,7.35503333208936
2,1, 1, 1, 0,20, 0.00,15.00,Holiday
8,0.0
2,1, 1, 1, 0,20,15.00,30.00,Holiday
8,0.0
2,1, 1, 1, 0,20,30.00,45.00,Holiday
8,0.0
2,1, 1, 1, 0,20,45.00,60.00,Holiday
8,0.0
2,1, 1, 1, 0,20, 0.00,60.00,Holiday
509,8.957946896608782
510,9.087187997030014
511,7.3198528293821274
512,6.929111938635468
513,8.962494153646542
648,9.028606171026638
711,7.448542522739432
774,6.909825303006315
2,1, 1, 1, 0,21, 0.00,15.00,Holiday
8,0.0
2,1, 1, 1, 0,21,15.00,30.00,Holiday
8,0.0
2,1, 1, 1, 0,21,30.00,45.00,Holiday
8,0.0
2,1, 1, 1, 0,21,45.00,60.00,Holiday
8,0.0
2,1, 1, 1, 0,21, 0.00,60.00,Holiday
509,8.926365476703344
510,8.986956126326993
511,7.285395385105272
512,6.4960690249845
513,8.930109160381383
648,8.921068580179234
711,7.405031223022776
774,6.489963172666446
2,1, 1, 1, 0,22, 0.00,15.00,Holiday
8,0.0
2,1, 1, 1, 0,22,15.00,30.00,Holiday
8,0.0
2,1, 1, 1, 0,22,30.00,45.00,Holiday
8,0.0
2,1, 1, 1, 0,22,45.00,60.00,Holiday
8,0.0
2,1, 1, 1, 0,22, 0.00,60.00,Holiday
509,8.879402303907503
510,8.860167364562097
511,7.222773514483464
512,6.115019629890707
513,8.880044219685214
648,8.79424120899
711,7.328579541385389
774,6.114677802672654
2,1, 1, 1, 0,23, 0.00,15.00,Holiday
8,0.0
2,1, 1, 1, 0,23,15.00,30.00,Holiday
8,0.0
2,1, 1, 1, 0,23,30.00,45.00,Holiday
8,0.0
2,1, 1, 1, 0,23,45.00,60.00,Holiday
8,0.0
2,1, 1, 1, 0,23, 0.00,60.00,Holiday
509,8.801129255729888
510,8.71701399143179
511,7.133251596700481
512,5.796924380803419
513,8.799389655696267
648,8.65315565015347
711,7.224235925992316
774,5.796079542255619
2,1, 1, 1, 0,24, 0.00,15.00,Holiday
8,0.0
2,1, 1, 1, 0,24,15.00,30.00,Holiday
8,0.0
2,1, 1, 1, 0,24,30.00,45.00,Holiday
8,0.0
2,1, 1, 1, 0,24,45.00,60.00,Holiday
8,0.0
2,1, 1, 1, 0,24, 0.00,60.00,Holiday
509,8.702658842029404
510,8.567061965419835
511,7.029174571960717
512,5.560939411894387
513,8.695043726475967
648,8.504424460664689
711,7.104304931608953
774,5.553472460929242
2,2, 1, 2, 0, 1, 0.00,15.00,Monday
8,381181.5400634763
2,2, 1, 2, 0, 1,15.00,30.00,Monday
8,381181.5400634763
2,2, 1, 2, 0, 1,30.00,45.00,Monday
8,381181.5400634763
2,2, 1, 2, 0, 1,45.00,60.00,Monday
8,381181.5400634763
2,2, 1, 2, 0, 1, 0.00,60.00,Monday
509,16.053562782364338
510,15.941877466090872
511,7.860333810269679
512,12.912401781552603
513,11.437724647634084
648,11.011507588799176
711,7.273201841958851
774,8.204081093860204
2,2, 1, 2, 0, 2, 0.00,15.00,Monday
8,302631.09898376453
2,2, 1, 2, 0, 2,15.00,30.00,Monday
8,302631.09898376453
2,2, 1, 2, 0, 2,30.00,45.00,Monday
8,302631.09898376453
2,2, 1, 2, 0, 2,45.00,60.00,Monday
8,302631.09898376453
2,2, 1, 2, 0, 2, 0.00,60.00,Monday
509,18.921407136437818
510,18.074495983848763
511,8.43566441213383
512,15.865154097400602
513,14.671876859660712
648,13.561072045718895
711,7.9954403459096834
774,11.338700689165284
2,2, 1, 2, 0, 3, 0.00,15.00,Monday
8,224080.65790405258
2,2, 1, 2, 0, 3,15.00,30.00,Monday
8,224080.65790405258
2,2, 1, 2, 0, 3,30.00,45.00,Monday
8,224080.65790405258
2,2, 1, 2, 0, 3,45.00,60.00,Monday
8,224080.65790405258
2,2, 1, 2, 0, 3, 0.00,60.00,Monday
509,20.78004720665397
510,19.359462304777495
511,9.080549099652977
512,17.53359542666987
513,16.788628675163476
648,15.137156468569351
711,8.82731931412287
774,13.187043523458044
2,2, 1, 2, 0, 4, 0.00,15.00,Monday
8,224080.65790405258
2,2, 1, 2, 0, 4,15.00,30.00,Monday
8,224080.65790405258
2,2, 1, 2, 0, 4,30.00,45.00,Monday
8,224080.65790405258
2,2, 1, 2, 0, 4,45.00,60.00,Monday
8,224080.65790405258
2,2, 1, 2, 0, 4, 0.00,60.00,Monday
509,22.118783001218656
510,20.41419398662765
511,9.814665923190061
512,18.6847356594539
513,18.279254110955282
648,16.3011842820815
711,9.596889617463875
774,14.430718219511098
2,2, 1, 2, 0, 5, 0.00,15.00,Monday
8,224080.65790405258
2,2, 1, 2, 0, 5,15.00,30.00,Monday
8,224080.65790405258
2,2, 1, 2, 0, 5,30.00,45.00,Monday
8,224080.65790405258
2,2, 1, 2, 0, 5,45.00,60.00,Monday
8,224080.65790405258
2,2, 1, 2, 0, 5, 0.00,60.00,Monday
509,23.063601414300614
510,21.220429304297337
511,10.466675579495822
512,19.444649070058148
513,19.35440939344542
648,17.21120692274074
711,10.269313719718918
774,15.269238512103696
2,2, 1, 2, 0, 6, 0.00,15.00,Monday
8,381181.5400634763
2,2, 1, 2, 0, 6,15.00,30.00,Monday
8,381181.5400634763
2,2, 1, 2, 0, 6,30.00,45.00,Monday
8,381181.5400634763
2,2, 1, 2, 0, 6,45.00,60.00,Monday
8,381181.5400634763
2,2, 1, 2, 0, 6, 0.00,60.00,Monday
509,23.8725585106072
510,22.20342314380377
511,11.942485222479661
512,20.127603551690385
513,20.1829660334568
648,18.030790889226395
711,11.101770608930114
774,15.928812293292525
2,2, 1, 2, 0, 7, 0.00,15.00,Monday
8,695383.3043823239
2,2, 1, 2, 0, 7,15.00,30.00,Monday
8,695383.3043823239
2,2, 1, 2, 0, 7,30.00,45.00,Monday
8,695383.3043823239
2,2, 1, 2, 0, 7,45.00,60.00,Monday
8,695383.3043823239
2,2, 1, 2, 0, 7, 0.00,60.00,Monday
509,23.95364820865759
510,22.76348974439982
511,14.555179368616676
512,19.984775985167364
513,20.603881978950163
648,18.646298779752943
711,12.363263450332115
774,16.202479553754557
2,2, 1, 2, 0, 8, 0.00,15.00,Monday
8,852484.1865417477
2,2, 1, 2, 0, 8,15.00,30.00,Monday
8,852484.1865417477
2,2, 1, 2, 0, 8,30.00,45.00,Monday
8,852484.1865417477
2,2, 1, 2, 0, 8,45.00,60.00,Monday
8,852484.1865417477
2,2, 1, 2, 0, 8, 0.00,60.00,Monday
509,23.138548144896816
510,22.458637858311107
511,15.924940041815763
512,18.86085040521036
513,20.479990493214544
648,18.87651300033806
711,13.538717573111589
774,15.945231764706199
2,2, 1, 2, 0, 9, 0.00,15.00,Monday
8,695383.3043823239
2,2, 1, 2, 0, 9,15.00,30.00,Monday
8,695383.3043823239
2,2, 1, 2, 0, 9,30.00,45.00,Monday
8,695383.3043823239
2,2, 1, 2, 0, 9,45.00,60.00,Monday
8,695383.3043823239
2,2, 1, 2, 0, 9, 0.00,60.00,Monday
509,22.872810785679444
510,22.30402919209944
511,16.585836559968975
512,18.67310127474891
513,20.338598322123964
648,19.030238505427455
711,14.367342975025753
774,15.89814521560348
2,2, 1, 2, 0,10, 0.00,15.00,Monday
8,1399272.5644531262
2,2, 1, 2, 0,10,15.00,30.00,Monday
8,1399272.5644531262
2,2, 1, 2, 0,10,30.00,45.00,Monday
8,1399272.5644531262
2,2, 1, 2, 0,10,45.00,60.00,Monday
8,1399272.5644531262
2,2, 1, 2, 0,10, 0.00,60.00,Monday
509,23.621529821428926
510,21.770463654032074
511,18.698495306549177
512,19.502962573576653
513,20.701869437341692
648,19.11879216836239
711,15.483104565845833
774,16.49154375177369
2,2, 1, 2, 0,11, 0.00,15.00,Monday
8,1163621.2412139904
2,2, 1, 2, 0,11,15.00,30.00,Monday
8,1163621.2412139904
2,2, 1, 2, 0,11,30.00,45.00,Monday
8,1163621.2412139904
2,2, 1, 2, 0,11,45.00,60.00,Monday
8,1163621.2412139904
2,2, 1, 2, 0,11, 0.00,60.00,Monday
509,24.13210377801868
510,21.41550617425511
511,18.419097685692808
512,20.452164551633132
513,21.468476659074877
648,19.30941240196657
711,16.326243186861337
774,17.67767912816754
2,2, 1, 2, 0,12, 0.00,15.00,Monday
8,1163621.2412139904
2,2, 1, 2, 0,12,15.00,30.00,Monday
8,1163621.2412139904
2,2, 1, 2, 0,12,30.00,45.00,Monday
8,1163621.2412139904
2,2, 1, 2, 0,12,45.00,60.00,Monday
8,1163621.2412139904
2,2, 1, 2, 0,12, 0.00,60.00,Monday
509,24.42821494249659
510,21.653387030426096
511,18.70301573787416
512,21.4211301547019
513,21.708682035178683
648,19.520479682368546
711,16.575008314913703
774,18.60167545877655
2,2, 1, 2, 0,13, 0.00,15.00,Monday
8,1163621.2412139904
2,2, 1, 2, 0,13,15.00,30.00,Monday
8,1163621.2412139904
2,2, 1, 2, 0,13,30.00,45.00,Monday
8,1163621.2412139904
2,2, 1, 2, 0,13,45.00,60.00,Monday
8,1163621.2412139904
2,2, 1, 2, 0,13, 0.00,60.00,Monday
509,24.673554826518654
510,22.038985185555322
511,19.054097257658995
512,22.168993450962084
513,21.95330703350793
648,19.898780733333837
711,16.91460531308892
774,19.359548420075733
2,2, 1, 2, 0,14, 0.00,15.00,Monday
8,1163621.2412139904
2,2, 1, 2, 0,14,15.00,30.00,Monday
8,1163621.2412139904
2,2, 1, 2, 0,14,30.00,45.00,Monday
8,1163621.2412139904
2,2, 1, 2, 0,14,45.00,60.00,Monday
8,1163621.2412139904
2,2, 1, 2, 0,14, 0.00,60.00,Monday
509,24.706702786146398
510,22.37216977012864
511,19.337656809351056
512,22.638699318268078
513,21.94116847643083
648,20.21393182089026
711,17.161263302861357
774,19.81278020412177
2,2, 1, 2, 0,15, 0.00,15.00,Monday
8,1163621.2412139904
2,2, 1, 2, 0,15,15.00,30.00,Monday
8,1163621.2412139904
2,2, 1, 2, 0,15,30.00,45.00,Monday
8,1163621.2412139904
2,2, 1, 2, 0,15,45.00,60.00,Monday
8,1163621.2412139904
2,2, 1, 2, 0,15, 0.00,60.00,Monday
509,24.9082224180814
510,22.751644199652194
511,19.682072236017714
512,23.11753254597119
513,22.15583529709574
648,20.60281436693176
711,17.500543007233148
774,20.310119947720658
2,2, 1, 2, 0,16, 0.00,15.00,Monday
8,1163621.2412139904
2,2, 1, 2, 0,16,15.00,30.00,Monday
8,1163621.2412139904
2,2, 1, 2, 0,16,30.00,45.00,Monday
8,1163621.2412139904
2,2, 1, 2, 0,16,45.00,60.00,Monday
8,1163621.2412139904
2,2, 1, 2, 0,16, 0.00,60.00,Monday
509,25.355498387032693
510,23.516688291463325
511,19.865292989034824
512,23.782808987351828
513,22.328338332817207
648,21.030841573397772
711,17.66314317187301
774,20.676414182596382
2,2, 1, 2, 0,17, 0.00,15.00,Monday
8,1163621.2412139904
2,2, 1, 2, 0,17,15.00,30.00,Monday
8,1163621.2412139904
2,2, 1, 2, 0,17,30.00,45.00,Monday
8,1163621.2412139904
2,2, 1, 2, 0,17,45.00,60.00,Monday
8,1163621.2412139904
2,2, 1, 2, 0,17, 0.00,60.00,Monday
509,26.1633091676609
510,24.644599801587404
511,20.50520703483436
512,24.660299545494752
513,22.687165909654233
648,21.642044217044006
711,17.94255371544695
774,21.047683120052273
2,2, 1, 2, 0,18, 0.00,15.00,Monday
8,459731.9811431882
2,2, 1, 2, 0,18,15.00,30.00,Monday
8,459731.9811431882
2,2, 1, 2, 0,18,30.00,45.00,Monday
8,459731.9811431882
2,2, 1, 2, 0,18,45.00,60.00,Monday
8,459731.9811431882
2,2, 1, 2, 0,18, 0.00,60.00,Monday
509,25.302247705568718
510,25.106372001150206
511,19.349267218962595
512,23.629247974885534
513,22.817306787993783
648,22.156064160950468
711,18.038485897898624
774,20.97344868208902
2,2, 1, 2, 0,19, 0.00,15.00,Monday
8,1009585.0687011714
2,2, 1, 2, 0,19,15.00,30.00,Monday
8,1009585.0687011714
2,2, 1, 2, 0,19,30.00,45.00,Monday
8,1009585.0687011714
2,2, 1, 2, 0,19,45.00,60.00,Monday
8,1009585.0687011714
2,2, 1, 2, 0,19, 0.00,60.00,Monday
509,25.71799087633313
510,26.665398702215718
511,19.346598672471337
512,23.73233280561336
513,22.850583994788813
648,22.755942554324736
711,17.914195126464808
774,20.66830073685726
2,2, 1, 2, 0,20, 0.00,15.00,Monday
8,1323786.8330200189
2,2, 1, 2, 0,20,15.00,30.00,Monday
8,1323786.8330200189
2,2, 1, 2, 0,20,30.00,45.00,Monday
8,1323786.8330200189
2,2, 1, 2, 0,20,45.00,60.00,Monday
8,1323786.8330200189
2,2, 1, 2, 0,20, 0.00,60.00,Monday
509,26.885064946117467
510,28.372671259582013
511,19.837742439499145
512,24.56407892544331
513,23.43711447250905
648,23.6770122691278
711,18.069298341148055
774,20.807082550478007
2,2, 1, 2, 0,21, 0.00,15.00,Monday
8,1447397.8273071286
2,2, 1, 2, 0,21,15.00,30.00,Monday
8,1447397.8273071286
2,2, 1, 2, 0,21,30.00,45.00,Monday
8,1447397.8273071286
2,2, 1, 2, 0,21,45.00,60.00,Monday
8,1447397.8273071286
2,2, 1, 2, 0,21, 0.00,60.00,Monday
509,27.53569414443151
510,29.347431812128804
511,20.311446144760467
512,24.791094685242143
513,24.11915390987272
648,24.500175784854672
711,18.403111507514083
774,21.00818824524184
2,2, 1, 2, 0,22, 0.00,15.00,Monday
8,1323786.8330200189
2,2, 1, 2, 0,22,15.00,30.00,Monday
8,1323786.8330200189
2,2, 1, 2, 0,22,30.00,45.00,Monday
8,1323786.8330200189
2,2, 1, 2, 0,22,45.00,60.00,Monday
8,1323786.8330200189
2,2, 1, 2, 0,22, 0.00,60.00,Monday
509,28.177117092293347
510,29.68671593776428
511,20.454560154187774
512,25.121045668836377
513,24.714168085647415
648,25.050610327493896
711,18.709855231268683
774,21.18044851082042
2,2, 1, 2, 0,23, 0.00,15.00,Monday
8,1009585.0687011714
2,2, 1, 2, 0,23,15.00,30.00,Monday
8,1009585.0687011714
2,2, 1, 2, 0,23,30.00,45.00,Monday
8,1009585.0687011714
2,2, 1, 2, 0,23,45.00,60.00,Monday
8,1009585.0687011714
2,2, 1, 2, 0,23, 0.00,60.00,Monday
509,28.566542492425576
510,29.53199430365028
511,19.97586276283305
512,25.352748308945163
513,25.22848111369449
648,25.32157958828308
711,18.807679242980072
774,21.43100042556606
2,2, 1, 2, 0,24, 0.00,15.00,Monday
8,538282.4222229002
2,2, 1, 2, 0,24,15.00,30.00,Monday
8,538282.4222229002
2,2, 1, 2, 0,24,30.00,45.00,Monday
8,538282.4222229002
2,2, 1, 2, 0,24,45.00,60.00,Monday
8,538282.4222229002
2,2, 1, 2, 0,24, 0.00,60.00,Monday
509,28.423747083300068
510,28.64922903738045
511,19.27823427001198
512,25.13230100429049
513,25.441948662812226
648,25.214108315327262
711,18.686011791138206
774,21.529674659095626
2,3, 1, 3, 0, 1, 0.00,15.00,Tuesday
8,381181.5400634763
2,3, 1, 3, 0, 1,15.00,30.00,Tuesday
8,381181.5400634763
2,3, 1, 3, 0, 1,30.00,45.00,Tuesday
8,381181.5400634763
2,3, 1, 3, 0, 1,45.00,60.00,Tuesday
8,381181.5400634763
2,3, 1, 3, 0, 1, 0.00,60.00,Tuesday
509,28.291112165782884
510,28.141956058039007
511,18.83631149696173
512,24.963412461935626
513,25.40608008927357
648,24.923776404403107
711,18.45745969086022
774,21.44724549628854
2,3, 1, 3, 0, 2, 0.00,15.00,Tuesday
8,302631.09898376453
2,3, 1, 3, 0, 2,15.00,30.00,Tuesday
8,302631.09898376453
2,3, 1, 3, 0, 2,30.00,45.00,Tuesday
8,302631.09898376453
2,3, 1, 3, 0, 2,45.00,60.00,Tuesday
8,302631.09898376453
2,3, 1, 3, 0, 2, 0.00,60.00,Tuesday
509,28.145485453799875
510,27.78630554345544
511,18.509815892473377
512,24.787642894355244
513,25.294590050892147
648,24.66137567305768
711,18.22820481862003
774,21.301698207237525
2,3, 1, 3, 0, 3, 0.00,15.00,Tuesday
8,224080.65790405258
2,3, 1, 3, 0, 3,15.00,30.00,Tuesday
8,224080.65790405258
2,3, 1, 3, 0, 3,30.00,45.00,Tuesday
8,224080.65790405258
2,3, 1, 3, 0, 3,45.00,60.00,Tuesday
8,224080.65790405258
2,3, 1, 3, 0, 3, 0.00,60.00,Tuesday
509,27.972447209020533
510,27.44130589827637
511,18.189562429304427
512,24.593474915314633
513,25.15018235259783
648,24.41459081643724
711,18.00145540100642
774,21.135123286923886
2,3, 1, 3, 0, 4, 0.00,15.00,Tuesday
8,224080.65790405258
2,3, 1, 3, 0, 4,15.00,30.00,Tuesday
8,224080.65790405258
2,3, 1, 3, 0, 4,30.00,45.00,Tuesday
8,224080.65790405258
2,3, 1, 3, 0, 4,45.00,60.00,Tuesday
8,224080.65790405258
2,3, 1, 3, 0, 4, 0.00,60.00,Tuesday
509,27.85025289981774
510,27.27492898944899
511,17.97754454989213
512,24.44556279187606
513,24.999658901185718
648,24.202500106830293
711,17.78672319497032
774,20.960614258792827
2,3, 1, 3, 0, 5, 0.00,15.00,Tuesday
8,224080.65790405258
2,3, 1, 3, 0, 5,15.00,30.00,Tuesday
8,224080.65790405258
2,3, 1, 3, 0, 5,30.00,45.00,Tuesday
8,224080.65790405258
2,3, 1, 3, 0, 5,45.00,60.00,Tuesday
8,224080.65790405258
2,3, 1, 3, 0, 5, 0.00,60.00,Tuesday
509,27.73831667430546
510,27.13687612993346
511,17.79477932808739
512,24.298608599793063
513,24.864679965033478
648,24.036932932539855
711,17.602182642144292
774,20.790406795751185
2,3, 1, 3, 0, 6, 0.00,15.00,Tuesday
8,381181.5400634763
2,3, 1, 3, 0, 6,15.00,30.00,Tuesday
8,381181.5400634763
2,3, 1, 3, 0, 6,30.00,45.00,Tuesday
8,381181.5400634763
2,3, 1, 3, 0, 6,45.00,60.00,Tuesday
8,381181.5400634763
2,3, 1, 3, 0, 6, 0.00,60.00,Tuesday
509,27.784050633333145
510,27.384603751434057
511,18.531415368040975
512,24.320196232087117
513,24.78594108477681
648,23.98972532934385
711,17.661330797074214
774,20.691087763591085
2,3, 1, 3, 0, 7, 0.00,15.00,Tuesday
8,695383.3043823239
2,3, 1, 3, 0, 7,15.00,30.00,Tuesday
8,695383.3043823239
2,3, 1, 3, 0, 7,30.00,45.00,Tuesday
8,695383.3043823239
2,3, 1, 3, 0, 7,45.00,60.00,Tuesday
8,695383.3043823239
2,3, 1, 3, 0, 7, 0.00,60.00,Tuesday
509,27.467728241354486
510,27.560918265965455
511,20.279745579637854
512,23.847550562564862
513,24.603623735059085
648,23.9825339572926
711,18.209401320076832
774,20.473036361093
2,3, 1, 3, 0, 8, 0.00,15.00,Tuesday
8,852484.1865417477
2,3, 1, 3, 0, 8,15.00,30.00,Tuesday
8,852484.1865417477
2,3, 1, 3, 0, 8,30.00,45.00,Tuesday
8,852484.1865417477
2,3, 1, 3, 0, 8,45.00,60.00,Tuesday
8,852484.1865417477
2,3, 1, 3, 0, 8, 0.00,60.00,Tuesday
509,26.514898198509282
510,27.122424506431148
511,21.00415273100219
512,22.592805247595905
513,24.12848371128945
648,23.812854107044654
711,18.765598546953193
774,19.89727172149375
2,3, 1, 3, 0, 9, 0.00,15.00,Tuesday
8,695383.3043823239
2,3, 1, 3, 0, 9,15.00,30.00,Tuesday
8,695383.3043823239
2,3, 1, 3, 0, 9,30.00,45.00,Tuesday
8,695383.3043823239
2,3, 1, 3, 0, 9,45.00,60.00,Tuesday
8,695383.3043823239
2,3, 1, 3, 0, 9, 0.00,60.00,Tuesday
509,26.07032340160184
510,26.64522596023848
511,21.22678022461099
512,22.136497699812114
513,23.776233964259205
648,23.621785577836455
711,19.139570829559798
774,19.549321723369815
2,3, 1, 3, 0,10, 0.00,15.00,Tuesday
8,1399272.5644531262
2,3, 1, 3, 0,10,15.00,30.00,Tuesday
8,1399272.5644531262
2,3, 1, 3, 0,10,30.00,45.00,Tuesday
8,1399272.5644531262
2,3, 1, 3, 0,10,45.00,60.00,Tuesday
8,1399272.5644531262
2,3, 1, 3, 0,10, 0.00,60.00,Tuesday
509,26.720345149552006
510,25.972669091731362
511,22.94327523979459
512,22.805340201440938
513,23.86758880062414
648,23.376025516457997
711,19.822294873408815
774,19.83870773287536
2,3, 1, 3, 0,11, 0.00,15.00,Tuesday
8,1163621.2412139904
2,3, 1, 3, 0,11,15.00,30.00,Tuesday
8,1163621.2412139904
2,3, 1, 3, 0,11,30.00,45.00,Tuesday
8,1163621.2412139904
2,3, 1, 3, 0,11,45.00,60.00,Tuesday
8,1163621.2412139904
2,3, 1, 3, 0,11, 0.00,60.00,Tuesday
509,27.066540650122157
510,25.330833716747147
511,22.548677195189192
512,23.44717003225488
513,24.466745930888575
648,23.29679343809677
711,20.387514613837048
774,20.717404483298342
2,3, 1, 3, 0,12, 0.00,15.00,Tuesday
8,1163621.2412139904
2,3, 1, 3, 0,12,15.00,30.00,Tuesday
8,1163621.2412139904
2,3, 1, 3, 0,12,30.00,45.00,Tuesday
8,1163621.2412139904
2,3, 1, 3, 0,12,45.00,60.00,Tuesday
8,1163621.2412139904
2,3, 1, 3, 0,12, 0.00,60.00,Tuesday
509,27.610131014450104
510,25.400882157842393
511,22.866291156695038
512,24.317082845239536
513,25.06226240227408
648,23.376024573555814
711,20.76479400390818
774,21.627954472488966
2,3, 1, 3, 0,13, 0.00,15.00,Tuesday
8,1163621.2412139904
2,3, 1, 3, 0,13,15.00,30.00,Tuesday
8,1163621.2412139904
2,3, 1, 3, 0,13,30.00,45.00,Tuesday
8,1163621.2412139904
2,3, 1, 3, 0,13,45.00,60.00,Tuesday
8,1163621.2412139904
2,3, 1, 3, 0,13, 0.00,60.00,Tuesday
509,27.92631244236755
510,25.543629675620323
511,23.14263657283377
512,24.81717564750007
513,25.376896149538823
648,23.51568660370246
711,21.035123836317354
774,22.13598087532737
2,3, 1, 3, 0,14, 0.00,15.00,Tuesday
8,1163621.2412139904
2,3, 1, 3, 0,14,15.00,30.00,Tuesday
8,1163621.2412139904
2,3, 1, 3, 0,14,30.00,45.00,Tuesday
8,1163621.2412139904
2,3, 1, 3, 0,14,45.00,60.00,Tuesday
8,1163621.2412139904
2,3, 1, 3, 0,14, 0.00,60.00,Tuesday
509,28.047104253234806
510,25.75345461041504
511,23.27584262386768
512,24.95317558724101
513,25.469834436832002
648,23.72328791902772
711,21.14291809693167
774,22.262062334013475
2,3, 1, 3, 0,15, 0.00,15.00,Tuesday
8,1163621.2412139904
2,3, 1, 3, 0,15,15.00,30.00,Tuesday
8,1163621.2412139904
2,3, 1, 3, 0,15,30.00,45.00,Tuesday
8,1163621.2412139904
2,3, 1, 3, 0,15,45.00,60.00,Tuesday
8,1163621.2412139904
2,3, 1, 3, 0,15, 0.00,60.00,Tuesday
509,27.881686069364882
510,25.87172058400164
511,23.238326251426564
512,24.81015561444491
513,25.268251548855805
648,23.832369886159757
711,21.07294857728298
774,22.09331415055583
2,3, 1, 3, 0,16, 0.00,15.00,Tuesday
8,1163621.2412139904
2,3, 1, 3, 0,16,15.00,30.00,Tuesday
8,1163621.2412139904
2,3, 1, 3, 0,16,30.00,45.00,Tuesday
8,1163621.2412139904
2,3, 1, 3, 0,16,45.00,60.00,Tuesday
8,1163621.2412139904
2,3, 1, 3, 0,16, 0.00,60.00,Tuesday
509,27.77455939281815
510,26.20856314368634
511,23.046330383138496
512,24.79738034938238
513,24.91921621905621
648,23.90522972117514
711,20.858183029463817
774,21.77547244817692
2,3, 1, 3, 0,17, 0.00,15.00,Tuesday
8,1163621.2412139904
2,3, 1, 3, 0,17,15.00,30.00,Tuesday
8,1163621.2412139904
2,3, 1, 3, 0,17,30.00,45.00,Tuesday
8,1163621.2412139904
2,3, 1, 3, 0,17,45.00,60.00,Tuesday
8,1163621.2412139904
2,3, 1, 3, 0,17, 0.00,60.00,Tuesday
509,28.057502640931016
510,26.84194483441796
511,23.251614825634306
512,25.126848706248666
513,24.80945212230736
648,24.091960322507358
711,20.75524519526747
774,21.594888573717206
2,3, 1, 3, 0,18, 0.00,15.00,Tuesday
8,459731.9811431882
2,3, 1, 3, 0,18,15.00,30.00,Tuesday
8,459731.9811431882
2,3, 1, 3, 0,18,30.00,45.00,Tuesday
8,459731.9811431882
2,3, 1, 3, 0,18,45.00,60.00,Tuesday
8,459731.9811431882
2,3, 1, 3, 0,18, 0.00,60.00,Tuesday
509,26.82736881992082
510,26.91855733482408
511,21.7089341553391
512,23.65535523704397
513,24.56129407973181
648,24.198037454286386
711,20.470630841427727
774,21.064445764863475
2,3, 1, 3, 0,19, 0.00,15.00,Tuesday
8,1009585.0687011714
2,3, 1, 3, 0,19,15.00,30.00,Tuesday
8,1009585.0687011714
2,3, 1, 3, 0,19,30.00,45.00,Tuesday
8,1009585.0687011714
2,3, 1, 3, 0,19,45.00,60.00,Tuesday
8,1009585.0687011714
2,3, 1, 3, 0,19, 0.00,60.00,Tuesday
509,26.989386484015657
510,28.188146774193346
511,21.443628703576135
512,23.410685850570367
513,24.28710881456033
648,24.43482863398253
711,20.014576788061895
774,20.36942015434198
2,3, 1, 3, 0,20, 0.00,15.00,Tuesday
8,1323786.8330200189
2,3, 1, 3, 0,20,15.00,30.00,Tuesday
8,1323786.8330200189
2,3, 1, 3, 0,20,30.00,45.00,Tuesday
8,1323786.8330200189
2,3, 1, 3, 0,20,45.00,60.00,Tuesday
8,1323786.8330200189
2,3, 1, 3, 0,20, 0.00,60.00,Tuesday
509,27.869990910359736
510,29.54326972915154
511,21.65311470804175
512,24.119923481180347
513,24.591260669486694
648,25.02484293494069
711,19.87658165998104
774,20.345500314920205
2,3, 1, 3, 0,21, 0.00,15.00,Tuesday
8,1447397.8273071286
2,3, 1, 3, 0,21,15.00,30.00,Tuesday
8,1447397.8273071286
2,3, 1, 3, 0,21,30.00,45.00,Tuesday
8,1447397.8273071286